LAMMPS description

    2048      atoms    
       0      bonds    
       0      angles   
       0      dihedrals
       0      impropers

       1      atom types    
       0      bond types    
       0      angle types   
       0      dihedral types
       0      improper types


  0.0000000      43.368000     xlo xhi
  0.0000000      43.368000     ylo yhi
  0.0000000      43.368000     zlo zhi

 Atoms

      1      1      1      0.0000000     -1.7000000     -2.0200000     -2.0700000
      2      2      1      0.0000000     -1.3600000     -2.0900000      3.8500000
      3      3      1      0.0000000     -1.4000000     -1.8300000      9.3000000
      4      4      1      0.0000000     -1.8600000     -1.2200000     14.3500000
      5      5      1      0.0000000     -1.3700000     -1.4300000     20.4800000
      6      6      1      0.0000000     -1.5200000     -1.4800000     25.5000000
      7      7      1      0.0000000     -1.7800000     -1.8400000     31.1400000
      8      8      1      0.0000000     -1.8100000     -1.9100000     35.9400000
      9      9      1      0.0000000     -1.6600000      3.6600000     -1.9500000
     10     10      1      0.0000000     -1.7500000      3.3800000      3.9100000
     11     11      1      0.0000000     -1.4700000      3.5200000      9.2600000
     12     12      1      0.0000000     -1.6400000      3.6000000     14.5300000
     13     13      1      0.0000000     -1.9600000      3.5900000     20.0300000
     14     14      1      0.0000000     -2.1300000      3.8100000     25.3200000
     15     15      1      0.0000000     -1.5800000      3.8100000     31.0400000
     16     16      1      0.0000000     -1.6000000      3.7300000     35.9500000
     17     17      1      0.0000000     -1.9600000      9.0900000     -1.5700000
     18     18      1      0.0000000     -2.1500000      9.0600000      3.6200000
     19     19      1      0.0000000     -1.4200000      9.1800000      9.3400000
     20     20      1      0.0000000     -1.5500000      9.2800000     14.8400000
     21     21      1      0.0000000     -1.7400000      9.2100000     20.1300000
     22     22      1      0.0000000     -2.0400000      9.5100000     25.6200000
     23     23      1      0.0000000     -1.2000000      9.4100000     30.9600000
     24     24      1      0.0000000     -1.5300000      9.6400000     36.2300000
     25     25      1      0.0000000     -1.6800000     14.2200000     -1.6500000
     26     26      1      0.0000000     -1.8000000     14.0200000      3.7100000
     27     27      1      0.0000000     -1.8500000     14.4900000      9.0600000
     28     28      1      0.0000000     -1.9700000     14.5000000     14.8600000
     29     29      1      0.0000000     -1.8300000     14.2700000     20.1000000
     30     30      1      0.0000000     -1.9100000     14.4900000     25.7600000
     31     31      1      0.0000000     -1.8200000     15.0900000     30.9300000
     32     32      1      0.0000000     -1.8100000     14.5200000     36.0500000
     33     33      1      0.0000000     -1.6500000     20.0400000     -1.2000000
     34     34      1      0.0000000     -1.6200000     19.6500000      3.7500000
     35     35      1      0.0000000     -1.8200000     20.1900000      8.8500000
     36     36      1      0.0000000     -1.1800000     20.1000000     14.0000000
     37     37      1      0.0000000     -1.4900000     20.2200000     19.8000000
     38     38      1      0.0000000     -1.6300000     19.8500000     25.5000000
     39     39      1      0.0000000     -1.5000000     19.9900000     30.8000000
     40     40      1      0.0000000     -1.5500000     20.4000000     36.2900000
     41     41      1      0.0000000     -1.5900000     25.7700000     -0.9500000
     42     42      1      0.0000000     -1.7400000     25.4600000      3.7200000
     43     43      1      0.0000000     -1.7500000     25.8500000      9.1200000
     44     44      1      0.0000000     -1.9600000     25.6600000     14.7900000
     45     45      1      0.0000000     -1.5400000     25.3900000     20.1100000
     46     46      1      0.0000000     -1.5400000     25.3500000     25.2800000
     47     47      1      0.0000000     -1.4900000     25.2700000     30.7200000
     48     48      1      0.0000000     -1.6600000     25.2800000     36.4300000
     49     49      1      0.0000000     -1.9400000     30.7500000     -1.4700000
     50     50      1      0.0000000     -1.7800000     31.0900000      4.0400000
     51     51      1      0.0000000     -1.9800000     30.9000000      8.9900000
     52     52      1      0.0000000     -1.7600000     30.8700000     14.2800000
     53     53      1      0.0000000     -1.8900000     30.4800000     20.1700000
     54     54      1      0.0000000     -1.5600000     30.9600000     25.1300000
     55     55      1      0.0000000     -1.7100000     30.3000000     30.6100000
     56     56      1      0.0000000     -1.4100000     30.3700000     35.6000000
     57     57      1      0.0000000     -1.0500000     36.6000000     -1.4100000
     58     58      1      0.0000000     -1.4100000     36.3500000      3.9900000
     59     59      1      0.0000000     -1.4200000     36.5100000      9.3300000
     60     60      1      0.0000000     -2.0100000     36.4100000     14.5000000
     61     61      1      0.0000000     -1.2400000     36.3500000     20.2500000
     62     62      1      0.0000000     -1.6700000     36.6500000     25.0900000
     63     63      1      0.0000000     -1.5600000     36.2600000     30.7900000
     64     64      1      0.0000000     -1.3300000     35.7200000     36.4900000
     65     65      1      0.0000000      3.8100000     -2.2200000     -2.0600000
     66     66      1      0.0000000      3.7300000     -1.6200000      3.9000000
     67     67      1      0.0000000      4.3700000     -1.8100000      9.1300000
     68     68      1      0.0000000      3.9500000     -1.9200000     14.8300000
     69     69      1      0.0000000      3.7500000     -1.5000000     20.1400000
     70     70      1      0.0000000      3.6600000     -1.5900000     25.4700000
     71     71      1      0.0000000      3.4600000     -1.8200000     30.7600000
     72     72      1      0.0000000      3.5800000     -1.6000000     36.2300000
     73     73      1      0.0000000      3.2400000      3.7100000     -1.8500000
     74     74      1      0.0000000      3.7800000      3.8100000      3.9600000
     75     75      1      0.0000000      4.1200000      3.3200000      9.7100000
     76     76      1      0.0000000      3.9200000      3.6300000     14.8500000
     77     77      1      0.0000000      4.0300000      3.7800000     20.0400000
     78     78      1      0.0000000      3.9700000      3.6300000     25.4400000
     79     79      1      0.0000000      3.9000000      4.1600000     30.6400000
     80     80      1      0.0000000      3.6500000      3.4000000     35.7800000
     81     81      1      0.0000000      3.4600000      9.1900000     -1.8300000
     82     82      1      0.0000000      3.7800000      8.5600000      4.1100000
     83     83      1      0.0000000      3.9600000      9.2800000      9.2900000
     84     84      1      0.0000000      4.1400000      9.2300000     14.9400000
     85     85      1      0.0000000      3.7200000      9.2600000     19.8000000
     86     86      1      0.0000000      4.0000000      9.3100000     25.4100000
     87     87      1      0.0000000      3.7100000      8.9900000     30.6500000
     88     88      1      0.0000000      3.9200000      9.4700000     36.1400000
     89     89      1      0.0000000      3.7700000     14.3300000     -1.7400000
     90     90      1      0.0000000      3.6100000     14.5800000      3.6700000
     91     91      1      0.0000000      3.8700000     14.6200000      9.1500000
     92     92      1      0.0000000      3.5700000     14.7100000     14.9000000
     93     93      1      0.0000000      3.6600000     14.8400000     19.9100000
     94     94      1      0.0000000      3.6800000     14.4300000     25.0200000
     95     95      1      0.0000000      3.7800000     14.9500000     30.8600000
     96     96      1      0.0000000      3.5600000     14.6200000     36.2400000
     97     97      1      0.0000000      3.5600000     19.9600000     -1.3500000
     98     98      1      0.0000000      3.8100000     20.1400000      4.1600000
     99     99      1      0.0000000      4.0100000     20.0100000      8.8200000
    100    100      1      0.0000000      3.5000000     20.0200000     14.5400000
    101    101      1      0.0000000      3.7400000     19.8800000     20.2900000
    102    102      1      0.0000000      3.8500000     19.7900000     25.6100000
    103    103      1      0.0000000      3.6500000     20.4800000     30.7700000
    104    104      1      0.0000000      3.8300000     19.8800000     36.4200000
    105    105      1      0.0000000      3.7000000     25.1800000     -1.6500000
    106    106      1      0.0000000      4.1400000     25.2700000      3.3100000
    107    107      1      0.0000000      3.6600000     25.4900000      9.3700000
    108    108      1      0.0000000      3.7700000     25.7200000     14.5700000
    109    109      1      0.0000000      4.0600000     25.7000000     19.7700000
    110    110      1      0.0000000      4.0100000     25.5900000     25.7600000
    111    111      1      0.0000000      3.9000000     25.5600000     30.6400000
    112    112      1      0.0000000      3.4800000     25.3400000     36.3600000
    113    113      1      0.0000000      3.4200000     30.4700000     -1.9600000
    114    114      1      0.0000000      3.8300000     30.6800000      4.0200000
    115    115      1      0.0000000      3.5300000     31.0600000      9.5000000
    116    116      1      0.0000000      3.4700000     31.2200000     14.7100000
    117    117      1      0.0000000      4.0300000     30.6100000     19.9700000
    118    118      1      0.0000000      3.5300000     30.7800000     25.4300000
    119    119      1      0.0000000      3.7300000     30.8300000     30.7300000
    120    120      1      0.0000000      3.5400000     30.6400000     36.4700000
    121    121      1      0.0000000      3.7100000     36.2700000     -1.7000000
    122    122      1      0.0000000      3.8400000     36.0800000      3.9500000
    123    123      1      0.0000000      3.3300000     36.3400000      9.0900000
    124    124      1      0.0000000      3.8100000     36.7400000     14.4300000
    125    125      1      0.0000000      4.1100000     36.3200000     20.3700000
    126    126      1      0.0000000      4.1900000     36.4200000     25.7800000
    127    127      1      0.0000000      3.8900000     36.0200000     31.0500000
    128    128      1      0.0000000      2.7100000     36.1300000     36.2500000
    129    129      1      0.0000000      9.0300000     -2.3000000     -1.7200000
    130    130      1      0.0000000      9.5500000     -1.6300000      3.5000000
    131    131      1      0.0000000      9.0600000     -1.8100000      9.1500000
    132    132      1      0.0000000      9.0800000     -1.6200000     14.6800000
    133    133      1      0.0000000      9.4700000     -1.6400000     20.4000000
    134    134      1      0.0000000      9.7200000     -1.4300000     25.4500000
    135    135      1      0.0000000      8.9700000     -1.7200000     31.0500000
    136    136      1      0.0000000      9.3100000     -1.8800000     35.8500000
    137    137      1      0.0000000      8.8700000      3.5400000     -1.9300000
    138    138      1      0.0000000      9.1500000      3.7700000      3.3400000
    139    139      1      0.0000000      8.9600000      3.5400000      9.3700000
    140    140      1      0.0000000      9.3100000      3.5000000     14.8000000
    141    141      1      0.0000000      9.1200000      4.2700000     20.2900000
    142    142      1      0.0000000      8.9400000      3.8600000     25.7100000
    143    143      1      0.0000000      9.4200000      4.0700000     30.6500000
    144    144      1      0.0000000      9.1400000      3.8900000     36.1600000
    145    145      1      0.0000000      8.4300000      8.9500000     -1.5900000
    146    146      1      0.0000000      8.9400000      9.4200000      4.0100000
    147    147      1      0.0000000      9.2100000      9.2400000      9.3700000
    148    148      1      0.0000000      9.3500000      9.0200000     14.4100000
    149    149      1      0.0000000      9.5600000      8.9600000     20.0500000
    150    150      1      0.0000000      9.1700000      9.3100000     25.5600000
    151    151      1      0.0000000      8.8600000      9.1700000     31.1100000
    152    152      1      0.0000000      8.9700000      9.3200000     35.9600000
    153    153      1      0.0000000      9.1400000     13.9900000     -1.3800000
    154    154      1      0.0000000      9.0000000     14.3400000      4.0100000
    155    155      1      0.0000000      9.4400000     14.5300000      8.9600000
    156    156      1      0.0000000      9.4600000     14.7200000     14.9000000
    157    157      1      0.0000000      9.1200000     14.7100000     20.1200000
    158    158      1      0.0000000      9.1500000     14.8000000     25.6500000
    159    159      1      0.0000000      9.3100000     15.1000000     31.1300000
    160    160      1      0.0000000      8.8200000     14.9600000     36.0500000
    161    161      1      0.0000000      9.2100000     20.0300000     -1.4400000
    162    162      1      0.0000000      9.1500000     19.7800000      3.3400000
    163    163      1      0.0000000      8.9700000     19.9600000      8.9700000
    164    164      1      0.0000000      9.1800000     19.9300000     14.7300000
    165    165      1      0.0000000      9.4000000     20.0000000     19.7800000
    166    166      1      0.0000000      9.0600000     20.3400000     25.3100000
    167    167      1      0.0000000      9.1600000     20.1300000     30.8200000
    168    168      1      0.0000000      8.6800000     20.2700000     36.2400000
    169    169      1      0.0000000      9.2200000     25.2600000     -1.7400000
    170    170      1      0.0000000      9.2600000     25.1000000      3.7300000
    171    171      1      0.0000000      8.9700000     25.4900000      9.2300000
    172    172      1      0.0000000      9.2500000     25.6800000     14.5800000
    173    173      1      0.0000000      9.1500000     24.9300000     20.0000000
    174    174      1      0.0000000      9.0800000     25.4200000     25.4100000
    175    175      1      0.0000000      9.2300000     25.5300000     31.0800000
    176    176      1      0.0000000      8.9000000     25.1900000     36.3000000
    177    177      1      0.0000000      9.0900000     30.5800000     -1.5500000
    178    178      1      0.0000000      9.2600000     30.8400000      4.3900000
    179    179      1      0.0000000      9.2000000     30.5200000      9.3100000
    180    180      1      0.0000000      9.2200000     31.0700000     14.3600000
    181    181      1      0.0000000      9.1400000     30.8600000     19.9400000
    182    182      1      0.0000000      9.0300000     30.6000000     25.6800000
    183    183      1      0.0000000      8.9900000     31.0900000     30.6800000
    184    184      1      0.0000000      8.9800000     30.7500000     36.0800000
    185    185      1      0.0000000      9.0800000     35.9900000     -1.8600000
    186    186      1      0.0000000      9.1900000     36.4700000      3.9000000
    187    187      1      0.0000000      9.2400000     36.0200000      9.1900000
    188    188      1      0.0000000      9.5400000     36.4300000     14.8000000
    189    189      1      0.0000000      9.1700000     36.2000000     20.3300000
    190    190      1      0.0000000      8.9000000     36.0900000     25.2100000
    191    191      1      0.0000000      9.2800000     36.3100000     30.8900000
    192    192      1      0.0000000      9.0800000     36.3000000     36.0200000
    193    193      1      0.0000000     14.6500000     -1.8300000     -1.4800000
    194    194      1      0.0000000     14.5100000     -2.3300000      3.9800000
    195    195      1      0.0000000     14.6500000     -1.6800000      8.7600000
    196    196      1      0.0000000     14.6300000     -1.8800000     14.2400000
    197    197      1      0.0000000     14.4700000     -1.7200000     19.9600000
    198    198      1      0.0000000     14.7700000     -1.5600000     25.3500000
    199    199      1      0.0000000     15.1900000     -1.5900000     30.7200000
    200    200      1      0.0000000     14.4800000     -1.6900000     36.1400000
    201    201      1      0.0000000     14.6300000      3.6800000     -1.2200000
    202    202      1      0.0000000     14.2300000      3.8300000      3.5900000
    203    203      1      0.0000000     14.3300000      3.9200000      8.7900000
    204    204      1      0.0000000     14.7200000      3.4900000     14.3500000
    205    205      1      0.0000000     14.8400000      3.7200000     20.0600000
    206    206      1      0.0000000     14.8000000      3.7000000     25.9100000
    207    207      1      0.0000000     14.6500000      3.7900000     30.4500000
    208    208      1      0.0000000     14.7100000      3.9000000     36.3900000
    209    209      1      0.0000000     14.3400000      9.2100000     -1.3200000
    210    210      1      0.0000000     14.2400000      9.0000000      3.8200000
    211    211      1      0.0000000     14.8400000      9.0900000      9.1000000
    212    212      1      0.0000000     14.2800000      9.1400000     14.5100000
    213    213      1      0.0000000     14.5500000      9.0900000     20.0100000
    214    214      1      0.0000000     14.6400000      9.5500000     25.8700000
    215    215      1      0.0000000     14.6500000      9.3900000     31.0600000
    216    216      1      0.0000000     14.2100000      9.5200000     36.2900000
    217    217      1      0.0000000     14.5200000     14.0900000     -1.7200000
    218    218      1      0.0000000     14.6200000     14.9200000      3.4300000
    219    219      1      0.0000000     14.6400000     14.9600000      9.2700000
    220    220      1      0.0000000     14.4200000     14.5500000     14.3500000
    221    221      1      0.0000000     14.4000000     14.4400000     20.0800000
    222    222      1      0.0000000     14.5000000     15.0000000     25.4900000
    223    223      1      0.0000000     14.7900000     14.6500000     31.3700000
    224    224      1      0.0000000     14.3400000     14.4900000     36.2100000
    225    225      1      0.0000000     14.8000000     20.1800000     -1.8500000
    226    226      1      0.0000000     15.1700000     20.1800000      3.5700000
    227    227      1      0.0000000     14.8500000     19.9300000      9.0200000
    228    228      1      0.0000000     14.4100000     20.1600000     14.3500000
    229    229      1      0.0000000     14.5300000     19.9800000     20.1500000
    230    230      1      0.0000000     14.6200000     20.0700000     25.7600000
    231    231      1      0.0000000     14.9100000     20.2100000     30.8000000
    232    232      1      0.0000000     14.7300000     20.2400000     36.0600000
    233    233      1      0.0000000     14.3600000     25.7000000     -1.6600000
    234    234      1      0.0000000     14.3400000     25.1500000      3.7400000
    235    235      1      0.0000000     14.6600000     25.5500000      9.0200000
    236    236      1      0.0000000     14.3200000     25.4000000     14.3700000
    237    237      1      0.0000000     14.7800000     25.5700000     20.2300000
    238    238      1      0.0000000     14.4300000     25.4100000     25.6300000
    239    239      1      0.0000000     14.8600000     25.5600000     30.8800000
    240    240      1      0.0000000     14.6800000     25.7800000     36.2700000
    241    241      1      0.0000000     14.7300000     30.8700000     -1.2800000
    242    242      1      0.0000000     14.9600000     30.9400000      4.1100000
    243    243      1      0.0000000     14.7900000     31.1800000      9.3600000
    244    244      1      0.0000000     14.5500000     30.9600000     14.7700000
    245    245      1      0.0000000     14.6600000     31.2300000     19.3500000
    246    246      1      0.0000000     14.1400000     30.8300000     25.7200000
    247    247      1      0.0000000     14.4300000     30.7000000     30.4800000
    248    248      1      0.0000000     14.1200000     30.7000000     36.0200000
    249    249      1      0.0000000     14.6500000     36.0600000     -1.6500000
    250    250      1      0.0000000     14.7900000     36.2400000      3.8500000
    251    251      1      0.0000000     14.4900000     35.9500000      9.5800000
    252    252      1      0.0000000     14.4500000     36.5400000     14.7800000
    253    253      1      0.0000000     15.1100000     36.1900000     20.1100000
    254    254      1      0.0000000     14.8300000     36.2600000     25.4000000
    255    255      1      0.0000000     14.6400000     36.1500000     30.6700000
    256    256      1      0.0000000     14.5900000     35.9600000     36.2100000
    257    257      1      0.0000000     19.9800000     -1.9000000     -2.0700000
    258    258      1      0.0000000     20.3800000     -1.3600000      3.7700000
    259    259      1      0.0000000     19.9200000     -1.7600000      8.6100000
    260    260      1      0.0000000     19.8900000     -2.2100000     14.4300000
    261    261      1      0.0000000     20.1300000     -1.9100000     20.2100000
    262    262      1      0.0000000     20.1000000     -1.8600000     25.2800000
    263    263      1      0.0000000     19.9500000     -1.6400000     31.0000000
    264    264      1      0.0000000     20.1100000     -1.7000000     36.3900000
    265    265      1      0.0000000     19.6200000      3.4900000     -1.8100000
    266    266      1      0.0000000     20.2000000      3.6200000      3.7600000
    267    267      1      0.0000000     19.7600000      3.8200000      8.6400000
    268    268      1      0.0000000     19.9800000      3.4000000     14.3100000
    269    269      1      0.0000000     19.9800000      3.3700000     19.8100000
    270    270      1      0.0000000     20.1600000      3.9000000     25.4200000
    271    271      1      0.0000000     20.1400000      3.6800000     31.0600000
    272    272      1      0.0000000     20.2300000      3.6200000     35.9700000
    273    273      1      0.0000000     19.9500000      8.8900000     -1.8400000
    274    274      1      0.0000000     20.2400000      9.2700000      3.8000000
    275    275      1      0.0000000     19.9000000      8.7700000      8.9400000
    276    276      1      0.0000000     19.6500000      9.0200000     14.3600000
    277    277      1      0.0000000     20.0700000      9.3800000     19.9800000
    278    278      1      0.0000000     19.9400000      9.5200000     25.6500000
    279    279      1      0.0000000     20.0000000      9.4300000     30.9400000
    280    280      1      0.0000000     20.2200000      9.5600000     36.1000000
    281    281      1      0.0000000     19.8800000     14.8300000     -2.0300000
    282    282      1      0.0000000     20.1900000     14.3500000      3.3800000
    283    283      1      0.0000000     20.1500000     14.5100000      9.2200000
    284    284      1      0.0000000     20.0100000     14.5100000     14.5100000
    285    285      1      0.0000000     19.6700000     14.3100000     20.3500000
    286    286      1      0.0000000     19.6800000     15.0500000     25.2700000
    287    287      1      0.0000000     19.8900000     14.5500000     30.7100000
    288    288      1      0.0000000     20.1400000     14.8700000     36.3900000
    289    289      1      0.0000000     19.4700000     19.9200000     -1.6500000
    290    290      1      0.0000000     19.9200000     19.9800000      3.4100000
    291    291      1      0.0000000     20.2100000     19.9600000      9.5500000
    292    292      1      0.0000000     19.9300000     19.8900000     14.7000000
    293    293      1      0.0000000     19.6000000     20.1400000     20.0200000
    294    294      1      0.0000000     19.7300000     20.2500000     25.6300000
    295    295      1      0.0000000     20.0400000     19.6900000     30.8900000
    296    296      1      0.0000000     19.8500000     19.7400000     35.8400000
    297    297      1      0.0000000     20.2300000     25.6500000     -1.2400000
    298    298      1      0.0000000     19.7100000     25.3700000      3.6100000
    299    299      1      0.0000000     20.2300000     25.5300000      9.4800000
    300    300      1      0.0000000     20.3000000     25.4400000     14.6300000
    301    301      1      0.0000000     19.8400000     25.4300000     20.1100000
    302    302      1      0.0000000     19.9500000     25.1400000     25.4400000
    303    303      1      0.0000000     19.9300000     25.6700000     30.4900000
    304    304      1      0.0000000     19.9900000     25.5100000     36.2100000
    305    305      1      0.0000000     20.1600000     30.6500000     -1.7600000
    306    306      1      0.0000000     20.0300000     30.8600000      3.9200000
    307    307      1      0.0000000     20.3200000     30.6400000      9.3800000
    308    308      1      0.0000000     20.1500000     31.0100000     14.8100000
    309    309      1      0.0000000     20.2400000     30.7000000     20.0000000
    310    310      1      0.0000000     19.9500000     30.7500000     25.2600000
    311    311      1      0.0000000     20.0100000     30.7000000     30.6000000
    312    312      1      0.0000000     20.1600000     31.0800000     36.2300000
    313    313      1      0.0000000     20.0500000     36.2300000     -1.5400000
    314    314      1      0.0000000     20.1300000     36.0400000      3.7600000
    315    315      1      0.0000000     20.0700000     36.3900000      9.1500000
    316    316      1      0.0000000     19.9200000     36.6300000     14.5300000
    317    317      1      0.0000000     19.9100000     36.4900000     19.9400000
    318    318      1      0.0000000     20.1100000     36.0800000     25.6600000
    319    319      1      0.0000000     19.7400000     36.4500000     30.7400000
    320    320      1      0.0000000     20.2200000     36.1500000     36.1700000
    321    321      1      0.0000000     25.2900000     -1.7400000     -1.8100000
    322    322      1      0.0000000     25.5000000     -1.8400000      3.1900000
    323    323      1      0.0000000     25.6000000     -1.8000000      8.8900000
    324    324      1      0.0000000     25.1900000     -1.6900000     14.5700000
    325    325      1      0.0000000     25.7200000     -2.2400000     19.9200000
    326    326      1      0.0000000     25.2400000     -1.8100000     25.3900000
    327    327      1      0.0000000     25.4900000     -1.8100000     30.8500000
    328    328      1      0.0000000     25.1000000     -1.9000000     36.3800000
    329    329      1      0.0000000     25.4900000      3.7800000     -1.6900000
    330    330      1      0.0000000     25.5800000      3.7800000      3.7900000
    331    331      1      0.0000000     25.5000000      3.8900000      8.8900000
    332    332      1      0.0000000     25.2100000      3.2800000     14.1200000
    333    333      1      0.0000000     25.4500000      4.0100000     20.0000000
    334    334      1      0.0000000     25.6700000      3.5800000     25.5400000
    335    335      1      0.0000000     25.4800000      4.0900000     30.9000000
    336    336      1      0.0000000     25.7100000      3.7700000     36.2600000
    337    337      1      0.0000000     25.1900000      9.2000000     -1.7800000
    338    338      1      0.0000000     25.3600000      9.2200000      3.2000000
    339    339      1      0.0000000     25.4900000      9.2400000      9.1200000
    340    340      1      0.0000000     25.0500000      9.0900000     14.8200000
    341    341      1      0.0000000     25.2000000      9.2400000     19.9900000
    342    342      1      0.0000000     25.3500000      9.5300000     25.2600000
    343    343      1      0.0000000     25.7200000      9.8100000     30.4700000
    344    344      1      0.0000000     25.5100000      8.9900000     36.0300000
    345    345      1      0.0000000     25.2100000     14.6800000     -1.6300000
    346    346      1      0.0000000     25.5200000     14.4700000      3.2800000
    347    347      1      0.0000000     25.1400000     14.5100000      9.3100000
    348    348      1      0.0000000     25.4300000     14.5500000     14.3500000
    349    349      1      0.0000000     25.2000000     14.5900000     19.8900000
    350    350      1      0.0000000     25.2800000     14.5100000     25.5600000
    351    351      1      0.0000000     25.7400000     14.4800000     30.4300000
    352    352      1      0.0000000     25.1800000     14.5000000     36.7000000
    353    353      1      0.0000000     25.5100000     20.0400000     -1.6400000
    354    354      1      0.0000000     25.3300000     19.7200000      3.3800000
    355    355      1      0.0000000     25.3500000     20.0200000      8.9100000
    356    356      1      0.0000000     25.0400000     20.0600000     14.7000000