LAMMPS description

    4096      atoms    
       0      bonds    
       0      angles   
       0      dihedrals
       0      impropers

       1      atom types    
       0      bond types    
       0      angle types   
       0      dihedral types
       0      improper types


  0.0000000      43.368000     xlo xhi
  0.0000000      43.368000     ylo yhi
  0.0000000      94.797000     zlo zhi

 Atoms

      1      1      1      0.0000000     41.2280000     40.3080000      0.2300000
      2      2      1      0.0000000     40.5680000     40.6380000      6.0270000
      3      3      1      0.0000000     40.7580000     40.4680000     11.7040000
      4      4      1      0.0000000     40.5380000     40.6880000     17.4820000
      5      5      1      0.0000000     40.7480000     40.3780000     22.6280000
      6      6      1      0.0000000     40.6380000     40.4980000     28.5050000
      7      7      1      0.0000000     40.6280000     40.5680000     33.8220000
      8      8      1      0.0000000     42.8880000     37.4180000     38.9480000
      9      9      1      0.0000000     40.9580000      2.2300000      0.7910000
     10     10      1      0.0000000     40.5780000      2.7300000      5.8970000
     11     11      1      0.0000000     40.6780000      2.6000000     11.3940000
     12     12      1      0.0000000     40.6280000      2.7800000     17.7220000
     13     13      1      0.0000000     40.6080000      2.4900000     23.3690000
     14     14      1      0.0000000     40.6980000      2.5900000     28.4950000
     15     15      1      0.0000000     40.9880000      2.7700000     33.6420000
     16     16      1      0.0000000     40.7080000      3.2000000     38.8380000
     17     17      1      0.0000000      0.4000000     11.3700000      1.0010000
     18     18      1      0.0000000     40.7180000      8.2300000      5.5770000
     19     19      1      0.0000000     40.9180000      8.5700000     11.7950000
     20     20      1      0.0000000     40.8280000      8.3700000     17.4720000
     21     21      1      0.0000000     40.5380000      7.7600000     22.7780000
     22     22      1      0.0000000     40.6280000      8.2800000     28.3350000
     23     23      1      0.0000000     40.0580000      8.2000000     34.1120000
     24     24      1      0.0000000     40.5780000      6.1400000     42.3720000
     25     25      1      0.0000000      0.1100000     16.7700000      0.8610000
     26     26      1      0.0000000     40.7980000     13.8900000      6.6380000
     27     27      1      0.0000000     40.8380000     13.5900000     12.3550000
     28     28      1      0.0000000     40.9580000     13.5300000     17.3110000
     29     29      1      0.0000000     40.8080000     13.5800000     23.2490000
     30     30      1      0.0000000     40.8780000     13.7800000     28.6050000
     31     31      1      0.0000000     40.3680000     13.4500000     33.6620000
     32     32      1      0.0000000     40.2280000     13.3100000     39.6490000
     33     33      1      0.0000000     40.5380000     19.1000000      1.1910000
     34     34      1      0.0000000     41.0680000     19.1000000      6.6880000
     35     35      1      0.0000000     40.6380000     18.9200000     11.8250000
     36     36      1      0.0000000     40.2580000     18.9000000     17.1310000
     37     37      1      0.0000000     40.9280000     19.3100000     23.2590000
     38     38      1      0.0000000     40.9780000     19.2800000     27.9450000
     39     39      1      0.0000000     40.5680000     18.8600000     33.8520000
     40     40      1      0.0000000     40.5380000     18.8200000     39.4990000
     41     41      1      0.0000000     40.3980000     24.8300000      0.4610000
     42     42      1      0.0000000     40.7580000     24.6100000      6.3380000
     43     43      1      0.0000000     40.6480000     24.5800000     12.0650000
     44     44      1      0.0000000     40.5880000     23.9800000     17.1210000
     45     45      1      0.0000000     40.9580000     24.2500000     23.0490000
     46     46      1      0.0000000     40.9080000     24.7000000     28.1950000
     47     47      1      0.0000000     41.2380000     24.5200000     33.8120000
     48     48      1      0.0000000     41.0980000     24.7700000     39.1680000
     49     49      1      0.0000000     40.3780000     29.6100000      0.4510000
     50     50      1      0.0000000     40.2580000     29.7600000      6.4780000
     51     51      1      0.0000000     40.9180000     30.2100000     11.8550000
     52     52      1      0.0000000     41.0680000     29.8400000     17.6820000
     53     53      1      0.0000000     40.6980000     30.1600000     23.2090000
     54     54      1      0.0000000     40.7680000     29.9700000     28.2850000
     55     55      1      0.0000000     41.3180000     29.5700000     33.7820000
     56     56      1      0.0000000      0.6600000     27.1500000     39.5390000
     57     57      1      0.0000000     40.7780000     35.5800000      0.6810000
     58     58      1      0.0000000     40.7480000     35.4900000      5.8370000
     59     59      1      0.0000000     40.7980000     35.3100000     11.8350000
     60     60      1      0.0000000     40.8880000     35.1600000     17.5720000
     61     61      1      0.0000000     41.1280000     35.1800000     22.8880000
     62     62      1      0.0000000     41.0880000     34.6500000     28.2650000
     63     63      1      0.0000000     40.7880000     35.4000000     33.9320000
     64     64      1      0.0000000     40.5480000     34.7800000     38.6380000
     65     65      1      0.0000000      3.2500000     40.8280000      0.3000000
     66     66      1      0.0000000      2.8700000     40.7880000      6.1080000
     67     67      1      0.0000000      3.1300000     40.9580000     11.7450000
     68     68      1      0.0000000      2.8200000     40.7580000     17.3010000
     69     69      1      0.0000000      2.7900000     40.9280000     22.9680000
     70     70      1      0.0000000      3.2500000     40.1880000     28.4250000
     71     71      1      0.0000000      2.9100000     40.6680000     33.7920000
     72     72      1      0.0000000      2.6900000     40.5980000     40.3200000
     73     73      1      0.0000000     43.1580000      5.4700000      1.0110000
     74     74      1      0.0000000      2.8500000      3.0100000      6.3780000
     75     75      1      0.0000000      2.9300000      2.7900000     12.3650000
     76     76      1      0.0000000      2.6400000      3.0000000     17.5020000
     77     77      1      0.0000000      2.7200000      2.4200000     22.7380000
     78     78      1      0.0000000      2.7800000      2.8300000     28.3550000
     79     79      1      0.0000000      2.5800000      3.0000000     34.0420000
     80     80      1      0.0000000      2.6800000      3.1600000     39.0880000
     81     81      1      0.0000000      2.9500000      8.4400000      0.9510000
     82     82      1      0.0000000      3.3200000      8.3500000      6.4180000
     83     83      1      0.0000000      2.7600000      8.5400000     11.6840000
     84     84      1      0.0000000      2.8200000      7.8400000     17.6020000
     85     85      1      0.0000000      2.5800000      8.5400000     23.2090000
     86     86      1      0.0000000      3.1600000      8.3600000     28.1150000
     87     87      1      0.0000000      2.6700000      8.2100000     33.5620000
     88     88      1      0.0000000     43.2480000      6.1300000     39.4490000
     89     89      1      0.0000000      2.9800000     14.1900000      0.5010000
     90     90      1      0.0000000      2.8300000     13.6100000      6.0880000
     91     91      1      0.0000000      3.0700000     13.7100000     11.8050000
     92     92      1      0.0000000      2.8100000     13.9700000     17.4420000
     93     93      1      0.0000000      2.9100000     14.0200000     23.6590000
     94     94      1      0.0000000      3.0400000     13.7300000     28.5350000
     95     95      1      0.0000000      2.5200000     13.6000000     33.5210000
     96     96      1      0.0000000      2.5000000     12.9100000     39.3890000
     97     97      1      0.0000000      2.8400000     19.1900000      0.9610000
     98     98      1      0.0000000      2.7400000     19.0300000      6.6380000
     99     99      1      0.0000000      3.2000000     19.1400000     11.4740000
    100    100      1      0.0000000      2.8500000     18.6800000     17.4720000
    101    101      1      0.0000000      3.0900000     18.9800000     23.2490000
    102    102      1      0.0000000      3.1600000     19.1700000     28.7460000
    103    103      1      0.0000000      2.6200000     18.6300000     34.1120000
    104    104      1      0.0000000      2.6300000     17.9900000     39.1790000
    105    105      1      0.0000000      2.3100000     24.6700000      0.6710000
    106    106      1      0.0000000      1.9400000     24.6900000      6.0980000
    107    107      1      0.0000000      2.4600000     24.5400000     11.9750000
    108    108      1      0.0000000      2.5300000     24.2800000     17.5620000
    109    109      1      0.0000000      2.7500000     24.9100000     23.1690000
    110    110      1      0.0000000      2.9100000     24.1900000     28.7460000
    111    111      1      0.0000000      2.9700000     24.2500000     33.9720000
    112    112      1      0.0000000      3.5200000     24.7700000     40.0800000
    113    113      1      0.0000000      3.0500000     29.8300000      0.1200000
    114    114      1      0.0000000      2.8500000     29.7900000      6.5380000
    115    115      1      0.0000000      2.7100000     30.2000000     12.0450000
    116    116      1      0.0000000      2.4600000     29.2300000     17.1710000
    117    117      1      0.0000000      3.0500000     30.2100000     22.4780000
    118    118      1      0.0000000      3.2700000     29.9600000     28.3350000
    119    119      1      0.0000000      2.6800000     30.2700000     33.7420000
    120    120      1      0.0000000      2.4200000     30.5400000     39.8890000
    121    121      1      0.0000000      2.8800000     34.5900000      0.9410000
    122    122      1      0.0000000      2.7300000     35.3900000      6.0070000
    123    123      1      0.0000000      2.9000000     35.2300000     11.8150000
    124    124      1      0.0000000      2.9600000     35.6300000     16.9810000
    125    125      1      0.0000000      2.8900000     35.2600000     22.7680000
    126    126      1      0.0000000      3.2700000     35.7400000     28.4950000
    127    127      1      0.0000000      3.0700000     35.2700000     34.0720000
    128    128      1      0.0000000      2.5300000     35.4900000     39.1580000
    129    129      1      0.0000000      8.2100000     40.8780000      0.7610000
    130    130      1      0.0000000      8.8700000     40.6380000      5.8970000
    131    131      1      0.0000000      8.7100000     40.9780000     11.7450000
    132    132      1      0.0000000      8.7700000     40.6080000     17.2910000
    133    133      1      0.0000000      8.1900000     40.2480000     22.4480000
    134    134      1      0.0000000      7.9800000     40.4880000     28.4550000
    135    135      1      0.0000000      8.4500000     40.5580000     34.0720000
    136    136      1      0.0000000      8.7200000     40.5580000     40.0300000
    137    137      1      0.0000000      8.3900000      2.6300000      1.0010000
    138    138      1      0.0000000      8.2000000      2.7300000      6.6580000
    139    139      1      0.0000000      7.7900000      2.9800000     11.8850000
    140    140      1      0.0000000      8.0500000      2.5700000     17.4520000
    141    141      1      0.0000000      7.9300000      2.8900000     23.2990000
    142    142      1      0.0000000      8.4000000      2.6600000     27.9550000
    143    143      1      0.0000000      8.1700000      2.8400000     34.4630000
    144    144      1      0.0000000      8.1700000      2.5600000     39.0780000
    145    145      1      0.0000000      5.8700000      8.1200000     92.3640000
    146    146      1      0.0000000      8.3500000      8.4200000      5.7970000
    147    147      1      0.0000000      8.3000000      8.3800000     11.8150000
    148    148      1      0.0000000      8.1400000      8.4100000     17.3610000
    149    149      1      0.0000000      8.1300000      8.1400000     23.0490000
    150    150      1      0.0000000      8.2600000      8.1000000     28.1450000
    151    151      1      0.0000000      8.4000000      8.4700000     33.8220000
    152    152      1      0.0000000      9.0100000      8.7500000     39.7090000
    153    153      1      0.0000000      7.9200000     13.6500000      0.5310000
    154    154      1      0.0000000      8.4300000     14.2700000      6.0780000
    155    155      1      0.0000000      7.8100000     13.8600000     11.9250000
    156    156      1      0.0000000      8.3300000     13.5400000     17.3110000
    157    157      1      0.0000000      8.2800000     13.9200000     22.6280000
    158    158      1      0.0000000      8.3100000     13.4100000     28.6250000
    159    159      1      0.0000000      8.3900000     13.4800000     33.6420000
    160    160      1      0.0000000      5.9700000     10.9900000     39.5190000
    161    161      1      0.0000000      8.6100000     18.9600000      0.1100000
    162    162      1      0.0000000      8.2700000     18.9400000      6.6480000
    163    163      1      0.0000000      8.2500000     19.3400000     12.0950000
    164    164      1      0.0000000      8.1800000     18.9600000     17.4620000
    165    165      1      0.0000000      8.4200000     18.9800000     22.7280000
    166    166      1      0.0000000      8.3500000     18.9200000     28.2650000
    167    167      1      0.0000000      7.9500000     18.8100000     34.0720000
    168    168      1      0.0000000      8.3200000     18.3900000     39.6990000
    169    169      1      0.0000000      8.0100000     24.4100000      0.5810000
    170    170      1      0.0000000      8.0900000     24.3000000      6.2080000
    171    171      1      0.0000000      8.4200000     24.4700000     11.7850000
    172    172      1      0.0000000      7.9800000     24.4600000     18.0820000
    173    173      1      0.0000000      8.2500000     24.4300000     23.0890000
    174    174      1      0.0000000      8.3000000     24.4500000     28.5050000
    175    175      1      0.0000000      8.3200000     24.1500000     34.0720000
    176    176      1      0.0000000     11.3500000     26.9600000     39.7990000
    177    177      1      0.0000000      8.7900000     29.4000000     94.5170000
    178    178      1      0.0000000      8.0500000     29.6600000      6.1780000
    179    179      1      0.0000000      8.1400000     29.5900000     11.6940000
    180    180      1      0.0000000      8.1200000     29.8200000     16.7810000
    181    181      1      0.0000000      8.4300000     29.7500000     22.8680000
    182    182      1      0.0000000      8.3100000     30.0200000     28.6350000
    183    183      1      0.0000000      8.5700000     30.0200000     33.9220000
    184    184      1      0.0000000     11.4200000     32.2700000     39.3590000
    185    185      1      0.0000000      8.3500000     34.9400000      0.1600000
    186    186      1      0.0000000      8.1300000     34.8800000      6.4880000
    187    187      1      0.0000000      8.2400000     35.1300000     11.3340000
    188    188      1      0.0000000      8.0200000     35.2400000     17.6720000
    189    189      1      0.0000000      8.2800000     34.9000000     22.8380000
    190    190      1      0.0000000      8.1300000     35.2300000     28.3750000
    191    191      1      0.0000000      8.3400000     35.5800000     34.0220000
    192    192      1      0.0000000      8.4800000     34.9200000     39.3190000
    193    193      1      0.0000000     13.7800000     40.6280000      0.3800000
    194    194      1      0.0000000     13.3700000     40.5280000      5.8570000
    195    195      1      0.0000000     13.3000000     41.1080000     11.8950000
    196    196      1      0.0000000     13.3000000     41.0080000     16.9910000
    197    197      1      0.0000000     13.2200000     40.7780000     22.9180000
    198    198      1      0.0000000     13.2800000     40.4480000     28.5150000
    199    199      1      0.0000000     13.6500000     40.2480000     33.8720000
    200    200      1      0.0000000     16.5300000     43.2180000     39.2390000
    201    201      1      0.0000000     11.1900000      0.1300000      0.7310000
    202    202      1      0.0000000     13.3700000      2.6700000      6.2480000
    203    203      1      0.0000000     13.6400000      3.0100000     11.8250000
    204    204      1      0.0000000     13.0400000      3.0100000     17.5620000
    205    205      1      0.0000000     13.2500000      2.5200000     22.8880000
    206    206      1      0.0000000     13.2100000      2.6700000     28.9460000
    207    207      1      0.0000000     13.5300000      2.8700000     34.1920000
    208    208      1      0.0000000     14.0400000      3.0800000     39.9900000
    209    209      1      0.0000000     13.6900000      8.2400000      1.0510000
    210    210      1      0.0000000     13.6100000      8.2500000      6.3780000
    211    211      1      0.0000000     13.6100000      8.1500000     11.5340000
    212    212      1      0.0000000     13.8900000      8.5500000     17.5520000
    213    213      1      0.0000000     13.4300000      8.2300000     23.0290000
    214    214      1      0.0000000     13.4100000      8.0800000     28.2450000
    215    215      1      0.0000000     14.4000000      8.1700000     33.7820000
    216    216      1      0.0000000     13.6300000      8.6600000     39.2690000
    217    217      1      0.0000000     13.9600000     13.9100000      0.4910000
    218    218      1      0.0000000     13.4300000     13.7300000      6.0570000
    219    219      1      0.0000000     13.4800000     13.9300000     12.0650000
    220    220      1      0.0000000     14.1900000     13.4100000     17.4520000
    221    221      1      0.0000000     13.5900000     13.7600000     22.4680000
    222    222      1      0.0000000     13.2500000     13.7100000     27.8340000
    223    223      1      0.0000000     13.6900000     13.4900000     33.7220000
    224    224      1      0.0000000     14.0500000     13.7400000     40.0600000
    225    225      1      0.0000000     13.4100000     19.3500000      0.0600000
    226    226      1      0.0000000     13.3100000     18.9900000      6.2380000
    227    227      1      0.0000000     13.4900000     18.7100000     11.7150000
    228    228      1      0.0000000     13.1700000     19.1900000     18.0820000
    229    229      1      0.0000000     13.7700000     19.0900000     22.9580000
    230    230      1      0.0000000     13.6700000     19.4800000     28.2450000
    231    231      1      0.0000000     14.2100000     19.1200000     34.1320000
    232    232      1      0.0000000     11.5200000     16.2300000     39.8790000
    233    233      1      0.0000000     14.4900000     23.7600000      0.1500000
    234    234      1      0.0000000     13.7200000     23.8800000      5.7870000
    235    235      1      0.0000000     13.0700000     24.6000000     11.7550000
    236    236      1      0.0000000     13.8900000     24.3500000     17.7620000
    237    237      1      0.0000000     13.7600000     24.8800000     22.6980000
    238    238      1      0.0000000     13.8600000     24.1600000     28.3950000
    239    239      1      0.0000000     13.3300000     24.4500000     34.0020000
    240    240      1      0.0000000     13.6500000     24.6900000     40.1700000
    241    241      1      0.0000000     13.7600000     30.0000000      0.3300000
    242    242      1      0.0000000     14.3800000     30.0400000      6.4380000
    243    243      1      0.0000000     13.8000000     29.9500000     11.8150000
    244    244      1      0.0000000     13.4000000     29.8200000     17.1810000
    245    245      1      0.0000000     13.7400000     29.5400000     22.8580000
    246    246      1      0.0000000     13.8800000     29.5600000     28.7060000
    247    247      1      0.0000000     13.7200000     29.7700000     34.0420000
    248    248      1      0.0000000     16.3100000     30.4800000     42.6730000
    249    249      1      0.0000000     13.0400000     35.1400000      0.4210000
    250    250      1      0.0000000     13.4300000     34.8100000      6.2880000
    251    251      1      0.0000000     13.2600000     35.1800000     11.5540000
    252    252      1      0.0000000     13.4600000     34.7300000     17.2910000
    253    253      1      0.0000000     14.0000000     34.9300000     22.4780000
    254    254      1      0.0000000     13.6500000     35.0700000     28.1650000
    255    255      1      0.0000000     13.4400000     34.8400000     33.9220000
    256    256      1      0.0000000     13.4600000     35.3600000     39.8590000
    257    257      1      0.0000000     18.7600000     40.8080000      0.4810000
    258    258      1      0.0000000     18.2600000     40.0580000      5.9470000
    259    259      1      0.0000000     18.5700000     41.2080000     11.4040000
    260    260      1      0.0000000     19.0500000     40.9180000     17.0710000
    261    261      1      0.0000000     18.6900000     40.6380000     22.6880000
    262    262      1      0.0000000     18.3500000     40.5880000     28.3150000
    263    263      1      0.0000000     18.8800000     40.7580000     33.7020000
    264    264      1      0.0000000     19.4200000     40.4280000     38.9280000
    265    265      1      0.0000000     18.9100000      2.9900000      0.2800000
    266    266      1      0.0000000     19.1800000      2.5500000      6.2980000
    267    267      1      0.0000000     18.9600000      3.0400000     11.7750000
    268    268      1      0.0000000     18.8700000      2.7000000     17.3010000
    269    269      1      0.0000000     18.8900000      2.6600000     22.8680000
    270    270      1      0.0000000     18.6700000      2.6200000     28.5650000
    271    271      1      0.0000000     18.9400000      2.9300000     33.8620000
    272    272      1      0.0000000     21.8200000      5.0100000     39.3590000
    273    273      1      0.0000000     19.1400000      8.1300000      0.8510000
    274    274      1      0.0000000     19.2100000      8.2100000      6.3280000
    275    275      1      0.0000000     19.5200000      8.1700000     11.0840000
    276    276      1      0.0000000     18.9200000      8.3100000     17.7120000
    277    277      1      0.0000000     19.0200000      8.2100000     23.0490000
    278    278      1      0.0000000     18.8700000      7.9300000     28.4450000
    279    279      1      0.0000000     19.1500000      8.0000000     33.6920000
    280    280      1      0.0000000     18.9200000      8.3500000     39.6590000
    281    281      1      0.0000000     18.6400000     14.1100000      0.6710000
    282    282      1      0.0000000     18.7500000     13.8800000      6.3080000
    283    283      1      0.0000000     19.0800000     13.4400000     12.0450000
    284    284      1      0.0000000     19.1500000     13.9200000     17.2610000
    285    285      1      0.0000000     19.2800000     13.5100000     22.9480000
    286    286      1      0.0000000     19.3100000     13.5200000     28.1050000
    287    287      1      0.0000000     19.4600000     13.4100000     33.5620000
    288    288      1      0.0000000     18.8900000     19.3400000     39.5490000
    289    289      1      0.0000000     19.4200000     18.7800000      0.8610000
    290    290      1      0.0000000     19.4100000     18.4800000      6.4780000
    291    291      1      0.0000000     18.7300000     18.9100000     11.8250000
    292    292      1      0.0000000     18.9700000     18.9300000     17.5120000
    293    293      1      0.0000000     18.9000000     18.9400000     23.2690000
    294    294      1      0.0000000     18.5500000     18.4200000     28.4750000
    295    295      1      0.0000000     19.0400000     18.8200000     34.1420000
    296    296      1      0.0000000     19.0300000     24.0600000     39.2590000
    297    297      1      0.0000000     19.3800000     24.3800000      0.7210000
    298    298      1      0.0000000     18.7500000     24.5200000      6.3580000
    299    299      1      0.0000000     18.9900000     23.5100000     12.3550000
    300    300      1      0.0000000     19.2400000     24.4600000     17.4020000
    301    301      1      0.0000000     19.1600000     24.3500000     22.5080000
    302    302      1      0.0000000     18.4300000     24.5600000     28.1050000
    303    303      1      0.0000000     19.1800000     24.6400000     34.2620000
    304    304      1      0.0000000     22.0900000     26.7700000     40.0500000
    305    305      1      0.0000000     21.3800000     32.2500000      1.1110000
    306    306      1      0.0000000     18.7500000     29.7800000      6.6280000
    307    307      1      0.0000000     19.1300000     29.7200000     11.8550000
    308    308      1      0.0000000     19.0300000     29.5100000     17.2410000
    309    309      1      0.0000000     19.3600000     29.5400000     22.8680000
    310    310      1      0.0000000     18.9800000     29.4900000     28.2550000
    311    311      1      0.0000000     19.0000000     29.4100000     34.0920000
    312    312      1      0.0000000     19.4200000     29.8000000     39.2090000
    313    313      1      0.0000000     13.1500000     32.7100000     92.7350000
    314    314      1      0.0000000     18.2700000     35.7300000      6.1280000
    315    315      1      0.0000000     18.9900000     35.6100000     12.0250000
    316    316      1      0.0000000     18.6300000     35.3600000     17.2010000
    317    317      1      0.0000000     18.6800000     35.2600000     22.2280000
    318    318      1      0.0000000     18.7300000     34.9500000     28.3750000
    319    319      1      0.0000000     18.8300000     35.0600000     33.6320000
    320    320      1      0.0000000     18.6500000     35.3100000     38.4380000
    321    321      1      0.0000000     24.5700000     37.9880000     92.7550000
    322    322      1      0.0000000     24.2300000     40.6680000      6.2380000
    323    323      1      0.0000000     24.0200000     40.8280000     11.0740000
    324    324      1      0.0000000     24.6000000     41.3880000     17.2310000
    325    325      1      0.0000000     24.4000000     40.7880000     22.6480000
    326    326      1      0.0000000     24.4600000     40.2680000     28.0650000
    327    327      1      0.0000000     24.5400000     40.5080000     33.5320000
    328    328      1      0.0000000     27.5800000     41.9680000     39.4290000
    329    329      1      0.0000000     24.4500000      3.0300000      0.6810000
    330    330      1      0.0000000     24.4700000      2.7500000      6.1980000
    331    331      1      0.0000000     24.7500000      2.6800000     11.4240000
    332    332      1      0.0000000     24.0600000      2.6900000     16.9110000
    333    333      1      0.0000000     24.2100000      2.7000000     22.5680000
    334    334      1      0.0000000     24.4000000      2.4000000     28.3150000
    335    335      1      0.0000000     24.2800000      2.1100000     34.3430000
    336    336      1      0.0000000     21.6500000      2.6800000     42.3820000
    337    337      1      0.0000000     21.9000000      7.9500000     92.4940000
    338    338      1      0.0000000     24.1400000      8.2800000      5.7370000
    339    339      1      0.0000000     24.0100000      8.0600000     11.4640000
    340    340      1      0.0000000     24.4500000      7.6800000     17.2510000
    341    341      1      0.0000000     24.3900000      7.8700000     22.7080000
    342    342      1      0.0000000     24.7500000      8.2900000     28.4850000
    343    343      1      0.0000000     24.1400000      8.0200000     34.2920000
    344    344      1      0.0000000     24.4300000     17.7600000     47.0680000
    345    345      1      0.0000000     27.6400000     10.5400000      0.4510000
    346    346      1      0.0000000     24.4500000     13.5500000      6.7880000
    347    347      1      0.0000000     24.3600000     13.4200000     11.9150000
    348    348      1      0.0000000     24.3600000     13.2900000     17.2510000
    349    349      1      0.0000000     24.7900000     13.9500000     22.8980000
    350    350      1      0.0000000     24.7200000     13.9300000     28.0550000
    351    351      1      0.0000000     24.0800000     12.9500000     34.0720000
    352    352      1      0.0000000     24.1400000     13.3000000     39.3690000
    353    353      1      0.0000000     24.3200000     19.4500000      0.5310000
    354    354      1      0.0000000     24.0700000     19.3300000      6.6580000
    355    355      1      0.0000000     24.2000000     18.8800000     12.0550000
    356    356      1      0.0000000     24.4400000     18.8700000     17.4520000