LAMMPS description

    2048      atoms    
       0      bonds    
       0      angles   
       0      dihedrals
       0      impropers

       1      atom types    
       0      bond types    
       0      angle types   
       0      dihedral types
       0      improper types


  0.0000000      43.368000     xlo xhi
  0.0000000      43.368000     ylo yhi
  0.0000000      52.784000     zlo zhi

 Atoms

      1      1      1      0.0000000     38.8200000      3.5500000     18.8530000
      2      2      1      0.0000000     42.9680000     37.9480000      7.9050000
      3      3      1      0.0000000     40.3600000     43.1380000     33.9470000
      4      4      1      0.0000000      0.0300000     41.3700000      8.0910000
      5      5      1      0.0000000      4.7900000     30.1800000     10.7920000
      6      6      1      0.0000000     35.3700000     11.2100000     16.4750000
      7      7      1      0.0000000     11.4900000      7.1700000     44.0830000
      8      8      1      0.0000000      1.3100000      8.6300000     51.8520000
      9      9      1      0.0000000     26.4280000     42.9780000     37.4030000
     10     10      1      0.0000000     17.3720000      9.9000000     16.5650000
     11     11      1      0.0000000     27.1300000     42.7080000      0.6350000
     12     12      1      0.0000000      1.9800000     40.5300000     29.5430000
     13     13      1      0.0000000     32.3300000      4.0300000     26.4300000
     14     14      1      0.0000000      3.5220000     37.5180000     23.2660000
     15     15      1      0.0000000      0.4000000      5.2400000     48.7590000
     16     16      1      0.0000000     39.9480000     11.4200000     46.7640000
     17     17      1      0.0000000     25.4500000     41.8400000      3.7530000
     18     18      1      0.0000000     42.7100000     22.8300000      2.0200000
     19     19      1      0.0000000     35.5100000      5.7600000      5.0280000
     20     20      1      0.0000000      9.0200000      2.3100000     18.2480000
     21     21      1      0.0000000      4.7900000     20.1700000     18.1980000
     22     22      1      0.0000000      2.5020000     15.6500000     28.9090000
     23     23      1      0.0000000     17.9200000     41.7080000     44.0330000
     24     24      1      0.0000000     21.0000000      9.6700000     37.6750000
     25     25      1      0.0000000     24.6200000      4.9400000     42.2900000
     26     26      1      0.0000000     38.5300000      8.2300000      4.7410000
     27     27      1      0.0000000      2.9120000     21.4100000      2.3530000
     28     28      1      0.0000000     34.4700000     16.4100000     11.3460000
     29     29      1      0.0000000     41.7600000     40.8380000     28.3850000
     30     30      1      0.0000000     43.2400000     21.1600000     39.6200000
     31     31      1      0.0000000     42.4600000      2.8400000     41.6050000
     32     32      1      0.0000000      1.3500000     20.3200000     36.0020000
     33     33      1      0.0000000      4.1920000     23.8500000      0.3580000
     34     34      1      0.0000000      0.6020000     28.7200000      4.2770000
     35     35      1      0.0000000     36.0180000     21.0200000     23.8500000
     36     36      1      0.0000000     32.1400000     23.7700000     13.7340000
     37     37      1      0.0000000      5.5420000     22.7000000     14.8830000
     38     38      1      0.0000000      2.5700000     21.2700000     50.8350000
     39     39      1      0.0000000      1.0000000     16.2800000     43.5900000
     40     40      1      0.0000000     29.5600000     14.6700000     25.0090000
     41     41      1      0.0000000      6.7720000     30.2900000      0.0760000
     42     42      1      0.0000000      0.6520000     19.8000000      4.7110000
     43     43      1      0.0000000     30.0300000     12.5900000     48.9650000
     44     44      1      0.0000000     30.6300000     13.9000000      0.1810000
     45     45      1      0.0000000     10.9800000     42.5400000     19.5880000
     46     46      1      0.0000000     38.8800000     24.3400000     24.6460000
     47     47      1      0.0000000     31.9300000     27.5600000     39.3270000
     48     48      1      0.0000000     25.6300000     25.6300000     38.1490000
     49     49      1      0.0000000      7.8820000     23.7800000     50.6930000
     50     50      1      0.0000000      5.8100000     17.7000000     49.6860000
     51     51      1      0.0000000     37.3300000     16.4800000      8.9880000
     52     52      1      0.0000000      5.3520000     27.5200000     17.8050000
     53     53      1      0.0000000      4.7900000     40.3800000     26.5910000
     54     54      1      0.0000000     40.4500000      0.1720000     38.1280000
     55     55      1      0.0000000     33.4700000      0.9920000     27.5280000
     56     56      1      0.0000000     33.1600000     34.4900000     45.7860000
     57     57      1      0.0000000      9.3000000     40.0900000     33.4830000
     58     58      1      0.0000000      4.9900000     26.7600000      5.5070000
     59     59      1      0.0000000      3.6920000     35.5400000     13.2100000
     60     60      1      0.0000000      1.9220000     23.6700000      9.6130000
     61     61      1      0.0000000     28.2600000     25.3500000     32.6070000
     62     62      1      0.0000000     42.3600000     37.2700000     27.3270000
     63     63      1      0.0000000     27.5200000     40.9700000     23.3570000
     64     64      1      0.0000000     34.2700000     39.3400000     43.2870000
     65     65      1      0.0000000     42.0280000     22.3500000     50.6080000
     66     66      1      0.0000000     41.5980000     16.9500000     14.4800000
     67     67      1      0.0000000     13.0300000     17.0500000      5.9450000
     68     68      1      0.0000000     37.2380000     12.4720000      4.8970000
     69     69      1      0.0000000     12.3200000     40.3700000     10.3680000
     70     70      1      0.0000000     43.1280000     28.3480000     28.6670000
     71     71      1      0.0000000     14.6300000     29.5700000     38.8140000
     72     72      1      0.0000000      5.3520000      9.8700000     33.2110000
     73     73      1      0.0000000      1.2400000     12.3900000     52.1140000
     74     74      1      0.0000000     29.9000000     11.5700000      2.7460000
     75     75      1      0.0000000     20.0400000     12.7800000     16.8880000
     76     76      1      0.0000000      8.2600000      8.8420000     35.5690000
     77     77      1      0.0000000      9.3920000     11.0000000     48.1490000
     78     78      1      0.0000000     16.3700000      5.3100000     27.0650000
     79     79      1      0.0000000     23.1500000     23.5700000     25.9660000
     80     80      1      0.0000000      1.0500000      2.3920000     31.2360000
     81     81      1      0.0000000      2.4800000     26.8700000     39.4690000
     82     82      1      0.0000000     30.2300000     15.6400000      3.7640000
     83     83      1      0.0000000     34.9800000     12.8500000      7.9750000
     84     84      1      0.0000000      6.6000000      3.4900000     12.1220000
     85     85      1      0.0000000     14.4100000     13.6800000     24.1830000
     86     86      1      0.0000000      7.1700000      2.4000000     51.2170000
     87     87      1      0.0000000     17.4700000     11.2600000     38.3300000
     88     88      1      0.0000000      8.6700000     25.0800000     36.6170000
     89     89      1      0.0000000     12.3400000     23.5400000     36.5970000
     90     90      1      0.0000000     13.4600000     13.2000000      7.1940000
     91     91      1      0.0000000      4.3420000     13.3300000     12.7870000
     92     92      1      0.0000000      1.2800000     13.4200000     47.9680000
     93     93      1      0.0000000      1.4600000     16.1100000     18.7320000
     94     94      1      0.0000000      3.1620000     13.4400000     25.6640000
     95     95      1      0.0000000     10.4400000     11.9600000     13.7540000
     96     96      1      0.0000000      9.0300000     10.2700000     43.4990000
     97     97      1      0.0000000      5.0400000     15.5300000     41.7260000
     98     98      1      0.0000000     13.9800000     26.9400000      3.8440000
     99     99      1      0.0000000     16.6500000     12.6900000     13.5730000
    100    100      1      0.0000000      1.2400000     15.5200000     13.5730000
    101    101      1      0.0000000      5.2100000     32.3800000     13.3410000
    102    102      1      0.0000000      2.2920000     40.8600000     34.7530000
    103    103      1      0.0000000     12.1520000     28.4600000     48.9910000
    104    104      1      0.0000000      6.9800000     29.7400000     41.6650000
    105    105      1      0.0000000     18.9200000     21.6000000     51.6610000
    106    106      1      0.0000000     18.9500000     26.7400000     17.4820000
    107    107      1      0.0000000      3.0220000     25.7000000     21.3520000
    108    108      1      0.0000000     38.8880000     35.3600000      2.4490000
    109    109      1      0.0000000      9.0100000     18.9400000      7.2750000
    110    110      1      0.0000000     32.6900000     26.2700000     17.3410000
    111    111      1      0.0000000     14.3500000     13.2700000     37.7350000
    112    112      1      0.0000000     11.8900000     23.0000000     40.4660000
    113    113      1      0.0000000     39.8780000     20.9800000      4.0960000
    114    114      1      0.0000000      5.5200000     30.3000000     48.7890000
    115    115      1      0.0000000      5.9200000      0.0220000      9.3610000
    116    116      1      0.0000000     41.1700000     32.3300000     18.1370000
    117    117      1      0.0000000      5.3000000     23.8700000     24.2230000
    118    118      1      0.0000000      6.5800000     15.6300000     30.0070000
    119    119      1      0.0000000     13.4820000     28.7200000     28.4750000
    120    120      1      0.0000000     14.1000000     24.5400000     32.6570000
    121    121      1      0.0000000     40.2080000     35.3700000      5.8690000
    122    122      1      0.0000000      8.9200000     32.8300000      1.6370000
    123    123      1      0.0000000     33.1680000     30.6400000      6.8920000
    124    124      1      0.0000000     38.4980000     24.3800000     13.0890000
    125    125      1      0.0000000     32.0100000      9.8420000     16.6560000
    126    126      1      0.0000000      4.1900000     38.1600000     19.4570000
    127    127      1      0.0000000     32.3100000     12.6920000     31.0750000
    128    128      1      0.0000000     40.9980000     41.4500000     50.9860000
    129    129      1      0.0000000      0.0800000      6.8320000     44.7690000
    130    130      1      0.0000000      2.8700000      0.2300000      8.1210000
    131    131      1      0.0000000     12.9000000     29.8700000      6.2570000
    132    132      1      0.0000000     22.3600000     30.0600000      8.2420000
    133    133      1      0.0000000      2.5800000     12.5820000     35.8310000
    134    134      1      0.0000000     18.6100000     17.9400000     21.6540000
    135    135      1      0.0000000     18.4800000     40.2900000     32.0520000
    136    136      1      0.0000000     40.3480000     39.6800000      1.2040000
    137    137      1      0.0000000     23.2300000      6.7400000     50.0690000
    138    138      1      0.0000000     41.8100000      4.0800000     15.8600000
    139    139      1      0.0000000      6.2300000      5.1100000      0.8360000
    140    140      1      0.0000000     26.3300000     38.4800000      2.6300000
    141    141      1      0.0000000      2.9900000      9.5520000     19.1350000
    142    142      1      0.0000000     10.9300000     19.9000000     26.1580000
    143    143      1      0.0000000      6.3100000     35.0600000     20.6560000
    144    144      1      0.0000000      0.0900000     38.5880000     52.5470000
    145    145      1      0.0000000     43.1780000     42.3680000     47.7410000
    146    146      1      0.0000000     10.0100000     37.4380000      8.3480000
    147    147      1      0.0000000     38.9080000     35.0980000     17.2000000
    148    148      1      0.0000000     13.0000000     12.5900000     16.6660000
    149    149      1      0.0000000     23.6500000      4.4900000     12.8570000
    150    150      1      0.0000000     10.2200000     41.7280000     36.6670000
    151    151      1      0.0000000      3.9000000     43.2180000     28.4450000
    152    152      1      0.0000000     10.7400000      7.0700000      5.0030000
    153    153      1      0.0000000     17.1800000      7.8900000      6.9680000
    154    154      1      0.0000000     39.4680000      1.4000000     25.3320000
    155    155      1      0.0000000      6.6700000     16.1800000      6.5190000
    156    156      1      0.0000000     35.9680000     18.7100000     15.5880000
    157    157      1      0.0000000     11.2200000     19.6800000     16.3940000
    158    158      1      0.0000000      2.9300000     12.0700000     31.5990000
    159    159      1      0.0000000      6.6600000     31.9800000     21.7440000
    160    160      1      0.0000000     39.3180000     16.7300000     35.1560000
    161    161      1      0.0000000      9.9200000     10.6100000      5.7180000
    162    162      1      0.0000000     37.2780000     15.8200000     51.8320000
    163    163      1      0.0000000      4.2400000     10.3100000      9.5720000
    164    164      1      0.0000000     39.0380000     18.2700000     27.9210000
    165    165      1      0.0000000     14.8500000     16.2300000     26.8530000
    166    166      1      0.0000000      1.5700000     25.5500000     28.1230000
    167    167      1      0.0000000     18.6700000     14.8500000     36.6070000
    168    168      1      0.0000000      9.9200000     18.4700000     47.2270000
    169    169      1      0.0000000      3.1500000     31.5700000      3.8950000
    170    170      1      0.0000000      5.8000000     13.9300000      9.4460000
    171    171      1      0.0000000     19.6700000     22.7800000     11.1440000
    172    172      1      0.0000000     41.1680000     28.3900000      6.4790000
    173    173      1      0.0000000      7.2200000     29.3000000     29.0300000
    174    174      1      0.0000000     39.0980000     24.3600000     28.0120000
    175    175      1      0.0000000     11.7700000     37.8000000     31.5490000
    176    176      1      0.0000000     25.7300000     35.3800000     43.6300000
    177    177      1      0.0000000     40.0380000     40.5400000     47.1770000
    178    178      1      0.0000000      4.9600000     33.4600000     50.5830000
    179    179      1      0.0000000     17.8500000     32.4500000     10.3380000
    180    180      1      0.0000000     15.3400000     17.1000000     20.3340000
    181    181      1      0.0000000     32.9800000     37.9900000     26.4500000
    182    182      1      0.0000000     15.8300000     37.7500000     12.2630000
    183    183      1      0.0000000      4.5800000     24.6500000     31.3270000
    184    184      1      0.0000000     34.8580000     36.4700000     35.2770000
    185    185      1      0.0000000     14.8400000     30.7300000      1.3750000
    186    186      1      0.0000000     42.3180000     42.7900000      1.1840000
    187    187      1      0.0000000      5.0900000      0.5920000      4.9630000
    188    188      1      0.0000000      1.4400000     39.9500000     25.2810000
    189    189      1      0.0000000     18.4300000      6.1300000     32.4350000
    190    190      1      0.0000000     39.5780000     39.6500000     36.8490000
    191    191      1      0.0000000     17.6200000     41.3100000     17.0490000
    192    192      1      0.0000000     39.6580000     31.3800000      1.0330000
    193    193      1      0.0000000     13.8400000     31.6800000     50.2200000
    194    194      1      0.0000000     42.2980000     40.4880000      4.8010000
    195    195      1      0.0000000     14.5700000      7.9700000     24.7980000
    196    196      1      0.0000000     10.2200000     28.8500000     17.4920000
    197    197      1      0.0000000     12.5100000      3.3100000     17.8850000
    198    198      1      0.0000000     20.7200000      5.8920000     15.2350000
    199    199      1      0.0000000      5.7700000     40.1600000     33.8860000
    200    200      1      0.0000000     12.7500000     30.5700000     45.9070000
    201    201      1      0.0000000     14.6500000      0.8500000     14.1820000
    202    202      1      0.0000000      3.2100000     40.1880000      6.4640000
    203    203      1      0.0000000     10.3100000     28.0080000     12.4740000
    204    204      1      0.0000000     19.9600000     40.7100000      8.0010000
    205    205      1      0.0000000     30.0800000     37.5000000     24.1020000
    206    206      1      0.0000000     21.7700000      2.0020000     24.9080000
    207    207      1      0.0000000     37.4700000     12.7100000     49.3940000
    208    208      1      0.0000000      3.5200000     38.2000000     32.2140000
    209    209      1      0.0000000      9.5520000      6.6300000      0.3680000
    210    210      1      0.0000000     27.9700000      2.6000000     50.1390000
    211    211      1      0.0000000     33.7800000     13.8500000     25.8560000
    212    212      1      0.0000000     37.3980000      3.0600000     22.3290000
    213    213      1      0.0000000      3.5000000     43.0980000     18.8320000
    214    214      1      0.0000000     19.8600000     19.5200000     24.9890000
    215    215      1      0.0000000     20.4300000     19.3300000     42.8840000
    216    216      1      0.0000000     42.3180000     27.7200000     39.6100000
    217    217      1      0.0000000     20.8200000     38.6380000     45.3730000
    218    218      1      0.0000000      7.4800000     20.0600000     44.9600000
    219    219      1      0.0000000      7.5400000      6.1000000     25.7250000
    220    220      1      0.0000000      9.6500000      8.9800000     20.4450000
    221    221      1      0.0000000     25.3700000     24.7000000     28.2740000
    222    222      1      0.0000000     11.1700000     11.7200000     37.2720000
    223    223      1      0.0000000      9.4000000     12.7500000     41.1820000
    224    224      1      0.0000000     11.4100000     41.8880000     42.0180000
    225    225      1      0.0000000      6.0500000     10.7100000     41.1210000
    226    226      1      0.0000000      3.3900000     33.9200000      9.9700000
    227    227      1      0.0000000     15.7300000     19.2700000     52.3260000
    228    228      1      0.0000000     27.0700000     29.0800000     10.5400000
    229    229      1      0.0000000      3.3300000     13.1900000     19.3660000
    230    230      1      0.0000000     18.9000000     11.4300000     41.6450000
    231    231      1      0.0000000     22.1900000     26.3100000     35.0350000
    232    232      1      0.0000000     21.1800000     23.0500000     49.5950000
    233    233      1      0.0000000     23.2600000     27.2100000      0.9120000
    234    234      1      0.0000000     19.6400000     16.2000000      4.7310000
    235    235      1      0.0000000     42.8180000      4.9500000     19.9110000
    236    236      1      0.0000000      9.9700000     24.7500000     21.8150000
    237    237      1      0.0000000      2.9800000     22.4900000     27.0240000
    238    238      1      0.0000000     14.2800000     30.8700000     31.5790000
    239    239      1      0.0000000      3.8700000     30.1700000     38.7030000
    240    240      1      0.0000000     10.8300000     25.9400000     33.9770000
    241    241      1      0.0000000      1.6100000     36.4200000     38.9750000
    242    242      1      0.0000000      4.9100000     23.0500000     11.3960000
    243    243      1      0.0000000     41.4780000     27.2100000      2.0510000
    244    244      1      0.0000000     10.5300000     23.3400000     15.2650000
    245    245      1      0.0000000     22.7900000     39.5200000      4.4640000
    246    246      1      0.0000000     28.4100000     35.5900000     30.1380000
    247    247      1      0.0000000      5.1700000     35.5100000     16.9580000
    248    248      1      0.0000000     14.9800000     25.6900000     38.7630000
    249    249      1      0.0000000     17.2400000     39.3600000     50.6230000
    250    250      1      0.0000000     21.7200000      5.0220000      0.5690000
    251    251      1      0.0000000     17.9200000     28.8100000      0.1810000
    252    252      1      0.0000000      0.7800000     25.9500000     18.0870000
    253    253      1      0.0000000     15.5700000     35.3900000     22.9030000
    254    254      1      0.0000000     14.3100000      5.1520000     34.8940000
    255    255      1      0.0000000     40.8380000     33.0900000     36.4760000
    256    256      1      0.0000000      6.8600000     33.2200000     39.8010000
    257    257      1      0.0000000     12.8300000      7.3300000     20.2480000
    258    258      1      0.0000000     16.7500000      5.0000000     10.1220000
    259    259      1      0.0000000     14.7100000     26.3800000     11.1850000
    260    260      1      0.0000000     36.6500000     26.1300000     21.7550000
    261    261      1      0.0000000     22.2000000     37.9800000     19.2360000
    262    262      1      0.0000000     21.2500000     36.8500000      1.8340000
    263    263      1      0.0000000     20.2900000     35.0000000     41.4030000
    264    264      1      0.0000000     12.6100000     39.1000000     27.9310000
    265    265      1      0.0000000     11.2900000      1.7600000     14.9080000
    266    266      1      0.0000000     30.5100000     41.2980000      7.7390000
    267    267      1      0.0000000     20.3800000      9.7100000     13.4720000
    268    268      1      0.0000000     20.2300000      5.6800000     10.7510000
    269    269      1      0.0000000     10.7300000      3.6520000     21.4930000
    270    270      1      0.0000000     26.2700000      9.4100000     21.7650000
    271    271      1      0.0000000     18.9800000     38.5700000     42.0380000
    272    272      1      0.0000000     22.0100000     31.4800000     38.9750000
    273    273      1      0.0000000     23.8500000     20.6000000      2.4840000
    274    274      1      0.0000000     32.5000000      9.8900000      8.8370000
    275    275      1      0.0000000     16.6000000      8.4600000     20.4250000
    276    276      1      0.0000000     26.7600000     32.9980000     17.5120000
    277    277      1      0.0000000     17.7500000      7.7300000     13.3910000
    278    278      1      0.0000000     36.4280000     14.5500000     20.9080000
    279    279      1      0.0000000     16.5100000     30.5400000     34.8230000
    280    280      1      0.0000000     16.6500000      4.5800000     49.3530000
    281    281      1      0.0000000     13.9200000     41.2480000     39.0150000
    282    282      1      0.0000000      6.7600000      7.2900000     10.1220000
    283    283      1      0.0000000     31.6380000      7.8800000      4.8820000
    284    284      1      0.0000000     25.4400000     14.7100000      7.5370000
    285    285      1      0.0000000     20.9000000      4.5300000     22.5710000
    286    286      1      0.0000000     21.4200000     11.6600000     26.1280000
    287    287      1      0.0000000     17.5500000     13.2300000     26.3290000
    288    288      1      0.0000000     16.9200000     14.4600000     40.6780000
    289    289      1      0.0000000     23.8100000     41.0580000      0.6300000
    290    290      1      0.0000000     23.9500000      7.6200000     10.9480000
    291    291      1      0.0000000     17.2000000     12.6500000      6.1410000
    292    292      1      0.0000000     16.9100000     20.3200000     18.8020000
    293    293      1      0.0000000      8.1900000     37.9300000     29.3420000
    294    294      1      0.0000000     30.2000000      9.5100000     19.6490000
    295    295      1      0.0000000     11.7500000     25.8500000     30.4000000
    296    296      1      0.0000000     29.9800000     24.2200000     26.5610000
    297    297      1      0.0000000     18.2000000     31.5600000     40.7280000
    298    298      1      0.0000000     26.6300000     20.7300000      0.5490000
    299    299      1      0.0000000     27.7300000     13.5300000     45.4890000
    300    300      1      0.0000000     20.3700000     20.9000000     39.4480000
    301    301      1      0.0000000      4.4500000     15.4620000     16.9990000
    302    302      1      0.0000000     11.5400000     22.5800000     18.9940000
    303    303      1      0.0000000     22.1200000     35.8000000     38.1690000
    304    304      1      0.0000000     14.0200000     20.8300000     33.4230000
    305    305      1      0.0000000     30.4100000     22.4000000     45.9980000
    306    306      1      0.0000000     12.3100000      3.6020000     42.8640000
    307    307      1      0.0000000     24.4000000     33.2600000      7.3150000
    308    308      1      0.0000000     23.9700000     12.2700000      3.5370000
    309    309      1      0.0000000     25.8500000     33.0600000     13.5420000
    310    310      1      0.0000000     29.2100000     40.0300000     20.2030000
    311    311      1      0.0000000     29.2000000     36.0600000     41.5540000
    312    312      1      0.0000000     19.3300000     26.5500000     45.2620000
    313    313      1      0.0000000     33.0800000      9.2100000      1.5570000
    314    314      1      0.0000000     15.1100000      6.2200000     16.2580000
    315    315      1      0.0000000     24.3900000     28.9500000     43.1820000
    316    316      1      0.0000000     29.0300000     41.4980000      3.9500000
    317    317      1      0.0000000     18.0200000     29.4500000     20.1730000
    318    318      1      0.0000000     29.7100000      2.7820000     30.8630000
    319    319      1      0.0000000     10.7400000     36.5000000     35.2160000
    320    320      1      0.0000000     12.6700000     34.1900000     44.7690000
    321    321      1      0.0000000     18.2000000     35.1380000      3.8840000
    322    322      1      0.0000000     24.8700000      3.3000000      6.5800000
    323    323      1      0.0000000     29.2000000     39.5700000      0.6400000
    324    324      1      0.0000000     34.4600000     40.6700000     13.9450000
    325    325      1      0.0000000     35.9300000     40.1080000     36.6670000
    326    326      1      0.0000000     27.5900000     10.7700000     39.6800000
    327    327      1      0.0000000     12.0200000     37.9400000     44.2350000
    328    328      1      0.0000000     11.0400000     42.5400000     51.2780000
    329    329      1      0.0000000     28.7100000     42.2480000     44.3250000
    330    330      1      0.0000000     21.2300000      2.0220000     16.8580000
    331    331      1      0.0000000     27.3700000      8.5700000      8.6760000
    332    332      1      0.0000000     25.2500000      7.6400000     52.7740000
    333    333      1      0.0000000     19.8900000      5.1600000     25.8660000
    334    334      1      0.0000000     30.3200000     13.5200000     17.2500000
    335    335      1      0.0000000     19.5700000      1.4600000     32.5660000
    336    336      1      0.0000000     23.1600000      8.5100000     43.2270000
    337    337      1      0.0000000     26.1000000     34.8880000     47.4290000
    338    338      1      0.0000000     27.5700000     11.0900000     52.0440000
    339    339      1      0.0000000     31.5200000     19.2200000     44.3760000
    340    340      1      0.0000000     16.8500000     41.1580000     11.1140000
    341    341      1      0.0000000     25.6200000     25.8800000     18.5300000
    342    342      1      0.0000000     24.1700000     12.1700000     23.2660000
    343    343      1      0.0000000     27.2700000      8.1300000     34.4910000
    344    344      1      0.0000000     30.8200000      8.7900000     42.6930000
    345    345      1      0.0000000      8.6500000     13.2300000      2.5540000
    346    346      1      0.0000000     21.0400000     12.8300000      5.5870000
    347    347      1      0.0000000     32.0700000     29.7500000     46.0080000
    348    348      1      0.0000000     33.8400000     13.4200000     50.9100000
    349    349      1      0.0000000     32.9600000      6.9900000     23.5780000
    350    350      1      0.0000000     24.5900000     19.0100000     22.1170000
    351    351      1      0.0000000     42.6700000     14.6700000     24.8780000
    352    352      1      0.0000000     28.4900000     14.7400000     31.5280000
    353    353      1      0.0000000     19.9800000     25.5200000     52.6780000
    354    354      1      0.0000000     13.8000000     27.7000000     52.6680000
    355    355      1      0.0000000     18.1000000     29.5900000      8.0360000
    356    356      1      0.0000000     24.3400000     11.4100000     46.9900000